<?xml version="1.0" encoding="UTF-8"?>

<!-- generated on 2021-09-05 10:31:14 by Eclipse SUMO GUI Version 1.9.2
<configuration xmlns:xsi="http://www.w3.org/2001/XMLSchema-instance" xsi:noNamespaceSchemaLocation="http://sumo.dlr.de/xsd/sumoConfiguration.xsd">

    <input>
        <net-file value="C:\HIS_Masters\UrbanTraffic\SUMO_Testmaps\Simulation_Sachsenhausen\Final%20Network\Simulation\OD_Car\Simulation\Sachsenhausen_network.net.xml"/>
        <route-files value="C:\HIS_Masters\UrbanTraffic\SUMO_Testmaps\Simulation_Sachsenhausen\Final%20Network\Simulation\OD_Car\Simulation\Kennedyallee/OD_Kennedyalle_KtoM_1.odtrips.xml,C:\HIS_Masters\UrbanTraffic\SUMO_Testmaps\Simulation_Sachsenhausen\Final%20Network\Simulation\OD_Car\Simulation\Kennedyallee/OD_Kennedyalle_KtoM_2.odtrips.xml,C:\HIS_Masters\UrbanTraffic\SUMO_Testmaps\Simulation_Sachsenhausen\Final%20Network\Simulation\OD_Car\Simulation\Kennedyallee/OD_Kennedyalle_MtoK_1.odtrips.xml,C:\HIS_Masters\UrbanTraffic\SUMO_Testmaps\Simulation_Sachsenhausen\Final%20Network\Simulation\OD_Car\Simulation\Kennedyallee/OD_Kennedyalle_MtoK_1.odtrips.xml"/>
    </input>

    <output>
        <write-license value="true"/>
        <emission-output value="C:\HIS_Masters\UrbanTraffic\SUMO_Testmaps\Simulation_Sachsenhausen\Final%20Network\Simulation\OD_Car\Simulation\emissioninfos.xml"/>
        <fcd-output value="C:\HIS_Masters\UrbanTraffic\SUMO_Testmaps\Simulation_Sachsenhausen\Final%20Network\Simulation\OD_Car\Simulation\fcd.xml"/>
        <tripinfo-output value="C:\HIS_Masters\UrbanTraffic\SUMO_Testmaps\Simulation_Sachsenhausen\Final%20Network\Simulation\OD_Car\Simulation\tripinfo.xml"/>
        <tripinfo-output.write-unfinished value="true"/>
        <vehroute-output value="C:\HIS_Masters\UrbanTraffic\SUMO_Testmaps\Simulation_Sachsenhausen\Final%20Network\Simulation\OD_Car\Simulation\vehicle.xml"/>
    </output>

    <processing>
        <lateral-resolution value="0.5"/>
    </processing>

    <bluelight_device>
        <device.bluelight.explicit value="ambulance"/>
        <device.bluelight.reactiondist value="50"/>
    </bluelight_device>

</configuration>
-->

<emission-export xmlns:xsi="http://www.w3.org/2001/XMLSchema-instance" xsi:noNamespaceSchemaLocation="http://sumo.dlr.de/xsd/emission_file.xsd">
</emission-export>
